# vtk DataFile Version 5.1
vtk output
ASCII
DATASET POLYDATA
POINTS 871 double
253.28632663 190.9866777 0 251.65989587 192.52804978 0 250.01930621 194.05427072 0 
248.27628171 195.44304145 0 246.33360283 196.5597794 0 244.3666407 197.63315438 0 
242.39937325 198.70598411 0 240.57883421 199.96402498 0 239.08436807 201.63365842 0 
237.64482961 203.35084555 0 236.19437262 205.05880988 0 234.72337202 206.74892221 0 
233.22057755 208.41106349 0 231.69350498 210.05091565 0 230.14772565 211.67304737 0 
228.58344056 213.27735881 0 226.99967115 214.86253367 0 225.49722967 216.52479323 0 
224.07315486 218.25315613 0 222.69573935 220.02059252 0 221.31832384 221.78802891 0 
219.76718338 223.40402638 0 218.06095991 224.84610305 0 216.1479062 225.89788808 0 
213.92503848 226.18066717 0 211.69209444 226.36641849 0 209.45713526 226.52709701 0 
207.22007454 226.64815821 0 204.97978304 226.6950506 0 202.73921213 226.67132364 0 
200.50006317 226.59523572 0 198.26596513 226.44118131 0 196.04388804 226.15225514 0 
193.83713758 225.76443071 0 191.64491188 225.30381442 0 189.47537436 224.74998717 0 
187.34768415 224.04710791 0 185.26474289 223.2221415 0 183.21555299 222.31775355 0 
181.20881216 221.32394175 0 179.2712905 220.19827985 0 177.41443995 218.94516716 0 
175.60867166 217.61988074 0 173.85822678 216.22248961 0 172.18916506 214.72738498 0 
170.63202499 213.11720569 0 169.13884346 211.44749057 0 167.70799155 209.72387216 0 
166.36179379 207.93254403 0 165.16283126 206.04087452 0 164.0458183 204.09941014 0 
163.00349185 202.11645913 0 162.05625139 200.08573502 0 161.29336164 197.98052018 0 
160.63667231 195.83943402 0 160.0738302 193.67113311 0 159.6239684 191.4759727 0 
159.34511969 189.25395378 0 159.1854363 187.02052777 0 159.13262041 184.7808498 0 
159.18707132 182.54072927 0 159.37300369 180.30852384 0 159.66429851 178.08820132 0 
160.05096641 175.88126937 0 160.51499493 173.68905989 0 161.06022251 171.51600687 0 
161.67050533 169.36052386 0 162.33772061 167.22142673 0 163.0392108 165.09327815 0 
163.77275023 162.97603429 0 164.52732369 160.86617451 0 165.29784054 158.7620348 0 
166.07407334 156.65999591 0 166.85402456 154.55933496 0 167.63514128 152.45910603 0 
168.39039828 150.35105272 0 168.9057085 148.17032801 0 169.05341563 145.94326133 0 
169.09545381 143.70287349 0 169.16788537 141.4651441 0 169.51543697 139.25147909 0 
170.29819647 137.16535666 0 171.54207359 135.36182442 0 173.22803083 133.88754855 0 
175.03082447 132.55674429 0 176.85667827 131.25791553 0 178.72186007 130.01782819 0 
180.63349641 128.84927323 0 182.59415536 127.76441317 0 184.59831395 126.7634574 0 
186.65874866 125.89225857 0 188.78008215 125.1722252 0 190.94588248 124.59740885 0 
193.14020885 124.14922201 0 195.35646431 123.8397614 0 197.59092335 123.68156233 0 
199.83157895 123.70538199 0 202.06832316 123.82746227 0 204.29820274 124.03787922 0 
206.51876115 124.33647933 0 208.72166142 124.74676617 0 210.91890523 125.1859888 0 
213.11131261 125.64878095 0 215.2995778 126.13106343 0 217.48950446 126.60574871 0 
219.68370937 127.06006514 0 221.88196541 127.49425771 0 224.08475046 127.90474842 0 
226.30151917 128.23192016 0 228.52296431 128.52482005 0 230.74843854 128.78517781 0 
232.97769873 129.01169606 0 235.21360745 129.15940206 0 237.45059066 129.28928135 0 
239.68849596 129.40212282 0 241.92721877 129.49816206 0 244.16635828 129.58394746 0 
246.40512875 129.67867438 0 248.64350322 129.78232005 0 250.88144723 129.89506533 0 
253.11629425 130.05803643 0 255.34971124 130.23910285 0 257.58159226 130.43822185 0 
259.81178057 130.65585687 0 262.03852555 130.90624154 0 264.05130706 131.7661835 0 
265.65068375 133.26060114 0 266.85565876 135.14956273 0 267.97882832 137.08853024 0 
269.00868834 139.07771983 0 269.95356642 141.1082981 0 270.80619322 143.17973542 0 
271.47942123 145.31699276 0 271.95778405 147.50294274 0 272.29278328 149.71658817 0 
272.50343725 151.94694254 0 272.54319223 154.18737206 0 272.38697987 156.41957231 0 
272.09397817 158.63960336 0 271.69271221 160.84393319 0 271.16561158 163.02183811 0 
270.51772043 165.16548702 0 269.76955832 167.2764413 0 268.93091968 169.3542715 0 
268.0056145 171.39508388 0 267.00108893 173.39728456 0 265.91938131 175.3585547 0 
264.75942346 177.27568453 0 263.52861033 179.14817056 0 262.23656983 180.97827128 0 
260.87988783 182.76052355 0 259.4539598 184.48903641 0 257.97407883 186.17161099 0 
256.453038 187.81662132 0 254.89077928 189.42244096 0 225.95406622 207.08611452 0 
227.65718087 205.62839111 0 229.3164429 204.12163127 0 230.93567002 202.57170095 0 
232.51227566 200.97915612 0 233.80190834 199.14547005 0 234.3843143 197.02648407 0 
234.69540477 194.80673251 0 234.94897642 192.57969281 0 235.08358306 190.34196224 0 
235.07792448 188.10147808 0 234.92177914 185.86845088 0 234.59858409 183.65186432 0 
234.04559773 181.47936274 0 233.29327168 179.37015856 0 232.38477765 177.32436961 0 
231.330143 175.34777586 0 230.11386514 173.46463348 0 228.76421728 171.67618299 0 
227.31063728 169.97243881 0 225.75999473 168.35485061 0 224.10933843 166.83798184 0 
222.36647448 165.42921605 0 220.55712537 164.10813056 0 218.68524333 162.87629893 0 
216.74614579 161.75137327 0 214.740644 160.75091509 0 212.68799855 159.85363971 0 
210.59082714 159.06535705 0 208.44720799 158.40926712 0 206.26081189 157.91690042 0 
204.05012353 157.55871562 0 201.82099027 157.34204933 0 199.57984731 157.28880188 0 
197.344977 157.45547505 0 195.13016599 157.78206297 0 192.94364269 158.26534632 0 
190.79608648 158.90843214 0 188.7080531 159.72362078 0 186.66531492 160.64356696 0 
184.66934092 161.66167695 0 182.72201068 162.77229028 0 180.85169762 164.00815052 0 
179.04159781 165.32870107 0 177.30402759 166.74215657 0 175.65121259 168.25639209 0 
174.14213722 169.91417632 0 172.7542056 171.67158014 0 171.49281846 173.52125766 0 
170.36592256 175.45852193 0 169.44095348 177.50057708 0 168.67857284 179.60599829 0 
168.0812703 181.7627727 0 167.65669389 183.96305393 0 167.45041222 186.19531845 0 
167.42171422 188.43459978 0 167.54977178 190.66981942 0 167.83211068 192.89267434 0 
168.31218748 195.0824422 0 168.96332033 197.22552652 0 169.76580338 199.3152443 0 
170.71707249 201.34381879 0 171.83699454 203.28581046 0 173.10010195 205.13602818 0 
174.47256706 206.90582138 0 175.94731926 208.59281316 0 177.53701876 210.17344992 0 
179.23219894 211.63877262 0 181.01299857 212.99648507 0 182.87573536 214.24133439 0 
184.8249367 215.34866053 0 186.85485218 216.29735502 0 188.93828635 217.11863705 0 
191.06873688 217.81148043 0 193.24363888 218.3549492 0 195.45379476 218.72506665 0 
197.6821248 218.94017099 0 199.92095388 218.99634211 0 202.15948744 218.87582425 0 
204.37368955 218.53166121 0 206.55469273 218.02700821 0 208.69637982 217.37152501 0 
210.78931357 216.56829071 0 212.81738649 215.61382375 0 214.80322101 214.57570841 0 
216.75186879 213.46821522 0 218.66806563 212.30470901 0 220.54134896 211.07336982 0 
222.38198093 209.79432444 0 224.18717943 208.46584931 0 245.38678995 191.99600009 0 
247.5547739 191.41368218 0 249.2030209 189.91276111 0 250.79580087 188.3311073 0 
252.35813018 186.71953969 0 253.88034213 185.06965505 0 255.33583644 183.36072954 0 
256.74059458 181.61039493 0 258.0947808 179.8205301 0 259.39683774 177.99189775 0 
260.65104504 176.13014707 0 261.88450419 174.25463947 0 263.10348039 172.36961905 0 
264.31428735 170.47932938 0 265.5258955 168.58955314 0 266.74177704 166.70252709 0 
267.90761604 164.78611631 0 268.96046716 162.80451123 0 269.54370968 160.63677584 0 
270.11615297 158.46617675 0 270.67499992 156.29205733 0 271.21784967 154.11385748 0 
271.74512656 151.93183373 0 271.51812631 149.75316442 0 270.86970399 147.60782121 0 
270.07520719 145.50829205 0 269.27812824 143.40974167 0 268.11894239 141.50158555 0 
266.62150702 139.85971951 0 264.87186895 138.45345196 0 263.09095603 137.08685117 0 
260.92681771 136.83774783 0 258.6820133 136.83218752 0 256.43721251 136.83892699 0 
254.19253129 136.86451552 0 251.94810385 136.90628419 0 249.70379542 136.95442688 0 
247.45951299 137.00368832 0 245.21504747 137.0439759 0 242.97029365 137.05882298 0 
240.72564343 137.04402827 0 238.48156231 136.99296611 0 236.23921345 136.88751403 0 
234.00179361 136.70756395 0 231.77010048 136.46908365 0 229.54551708 136.17074905 0 
227.3315236 135.79996419 0 225.13277439 135.348416 0 222.94634438 134.84138896 0 
220.77179795 134.28470658 0 218.60955826 133.68140895 0 216.45525231 133.05043673 0 
214.30056919 132.4206946 0 212.14112494 131.80798667 0 209.96992269 131.23778552 0 
207.77696815 130.75880631 0 205.56879239 130.35937766 0 203.34687938 130.04517574 0 
201.11228426 129.83108883 0 198.8690603 129.75441352 0 196.62579157 129.78443243 0 
194.38701705 129.92773597 0 192.15884707 130.20069578 0 189.96502048 130.67436931 0 
187.81644616 131.3127206 0 185.72939425 132.12757383 0 183.72487943 133.13810285 0 
181.88936488 134.42941689 0 180.19739076 135.89597091 0 178.65089066 137.51726707 0 
177.25160756 139.27261756 0 176.02684789 141.15385254 0 174.88386148 143.08474888 0 
174.39915232 145.10356733 0 175.13058323 147.18054476 0 177.36687595 147.37610396 0 
179.60449926 147.55549031 0 181.84357283 147.71525152 0 184.08421146 147.85213987 0 
186.3265563 147.95767746 0 188.56950589 148.04903875 0 190.81264255 148.13612476 0 
193.05560511 148.22724959 0 195.29711064 148.34932133 0 197.53524379 148.52004649 0 
199.76757791 148.75084092 0 201.991347 149.05504695 0 204.19295518 149.49341888 0 
206.36732282 150.04720135 0 208.51087777 150.70846118 0 210.61841114 151.47973297 0 
212.6659322 152.40000796 0 214.65320064 153.4413854 0 216.5848019 154.58217077 0 
218.45945409 155.81618559 0 220.26026632 157.15645566 0 222.00405944 158.56929226 0 
223.70811674 160.03004833 0 225.37978482 161.5282364 0 227.02632253 163.05406802 0 
228.67153017 164.58133335 0 230.32281681 166.10199144 0 231.98403848 167.611789 0 
233.66175047 169.10327519 0 235.35380231 170.57843711 0 237.05526552 172.04273806 0 
[...]
CELL_DATA 1384
SCALARS CellEntityIds int
LOOKUP_TABLE default
10 10 10 10 10 10 10 10 10 
10 10 10 10 10 10 10 10 10 
10 10 10 10 10 10 10 10 10 
10 10 10 10 10 10 10 10 10 
10 10 10 10 10 10 10 10 10 
10 10 10 10 10 10 10 10 10 
10 10 10 10 10 10 10 10 10 
10 10 10 10 10 10 10 10 10 
10 10 10 10 10 10 10 10 10 
10 10 10 10 10 10 10 10 10 
10 10 10 10 10 10 10 10 10 
10 10 10 10 10 10 10 10 10 
10 10 10 10 10 10 10 10 10 
10 10 10 10 10 10 10 10 10 
10 10 10 10 10 10 10 10 10 
10 10 10 10 10 10 10 10 10 
10 10 10 10 10 10 10 10 10 
10 10 10 10 10 10 10 10 10 
10 10 10 10 10 10 10 10 10 
10 10 10 10 10 10 10 10 10 
10 10 10 10 10 10 10 10 10 
10 10 10 10 10 10 10 10 10 
10 10 10 10 10 10 10 10 10 
10 10 10 10 10 10 10 10 10 
10 10 10 10 10 10 10 10 10 
10 10 10 10 10 10 10 10 10 
10 10 10 10 10 10 10 10 10 
10 10 10 10 10 10 10 10 10 
10 10 10 10 10 10 10 10 10 
10 10 10 10 10 10 10 10 10 
10 10 10 10 10 10 10 10 10 
10 10 10 10 10 10 10 10 10 
10 10 10 10 10 10 10 10 10 
10 10 10 10 10 10 10 10 10 
10 10 10 10 10 10 10 10 10 
10 10 10 10 10 10 10 10 10 
10 10 10 10 10 10 10 10 10 
10 10 10 10 10 10 10 10 10 
10 10 10 10 10 10 10 10 10 
10 10 10 10 10 10 10 10 10 
10 10 10 10 10 10 10 10 10 
10 10 10 10 10 10 10 10 10 
10 10 10 10 10 10 10 10 10 
10 10 10 10 10 10 10 10 10 
10 10 10 10 10 10 10 10 10 
10 10 10 10 10 10 10 10 10 
10 10 10 10 10 10 10 10 10 
10 10 10 10 10 10 10 10 10 
10 10 10 10 10 10 10 10 10 
10 10 10 10 10 10 10 10 10 
10 10 10 10 10 10 10 10 10 
10 10 10 10 10 10 10 10 10 
10 10 10 10 10 10 10 10 10 
10 10 10 10 10 10 10 10 10 
10 10 10 10 10 10 10 10 10 
10 10 10 10 10 10 10 10 10 
10 10 10 10 10 10 10 10 10 
10 10 10 10 10 10 10 10 10 
10 10 10 10 10 10 10 10 10 
10 10 10 10 10 10 10 10 10 
10 10 10 10 10 10 10 10 10 
10 10 10 10 10 10 10 10 10 
10 10 10 10 10 10 10 10 10 
10 10 10 10 10 10 10 10 10 
10 10 10 10 10 10 10 10 10 
10 10 10 10 10 10 10 10 10 
10 10 10 10 10 10 10 10 10 
10 10 10 10 10 10 10 10 10 
10 10 10 10 10 10 10 10 10 
10 10 10 10 10 10 10 10 10 
10 10 10 10 10 10 10 10 10 
10 10 10 10 10 10 10 10 10 
10 10 10 10 10 10 10 10 10 
10 10 10 10 10 10 10 10 10 
10 10 10 10 10 10 10 10 10 
10 10 10 10 10 10 10 10 10 
10 10 10 10 10 10 10 10 10 
10 10 10 10 10 10 10 10 10 
10 10 10 10 10 10 10 10 10 
10 10 10 10 10 10 10 10 10 
10 10 10 10 10 10 10 10 10 
10 10 10 10 10 10 10 10 10 
10 10 10 10 10 10 10 10 10 
10 10 10 10 10 10 10 10 10 
10 10 10 10 10 10 10 10 10 
10 10 10 10 10 10 10 10 10 
10 10 10 10 10 10 10 10 10 
10 10 10 10 10 10 10 10 10 
10 10 10 10 10 10 10 10 10 
10 10 10 10 10 10 10 10 10 
10 10 10 10 10 10 10 10 10 
10 10 10 10 10 10 10 10 10 
10 10 10 10 10 10 10 10 10 
10 10 10 10 10 10 10 10 10 
10 10 10 10 10 10 10 10 10 
10 10 10 10 10 10 10 10 10 
10 10 10 10 10 10 10 10 10 
10 10 10 10 10 10 10 10 10 
10 10 10 10 10 10 10 10 10 
10 10 10 10 10 10 10 10 10 
10 10 10 10 10 10 10 10 10 
10 10 10 10 10 10 10 10 10 
10 10 10 10 10 10 10 10 10 
10 10 10 10 10 10 10 10 10 
10 10 10 10 10 10 10 10 10 
10 10 10 10 10 10 10 10 10 
10 10 10 10 10 10 10 10 10 
10 10 10 10 10 10 10 10 10 
10 10 10 10 10 10 10 10 10 
10 10 10 10 10 10 10 10 10 
10 10 10 10 10 10 10 10 10 
10 10 10 10 10 10 10 10 10 
10 10 10 10 10 10 10 10 10 
10 10 10 10 10 10 10 10 10 
10 10 10 10 10 10 10 10 10 
10 10 10 10 10 10 10 10 10 
10 10 10 10 10 10 10 10 10 
10 10 10 10 10 10 10 10 10 
10 10 10 10 10 10 10 10 10 
10 10 10 10 10 10 10 10 10 
10 10 10 10 10 10 10 10 10 
10 10 10 10 10 10 10 10 10 
10 10 10 10 10 10 10 10 10 
10 10 10 10 10 10 10 10 10 
10 10 10 10 10 10 10 10 10 
10 10 10 10 10 10 10 10 10 
10 10 10 10 10 10 10 10 10 
10 10 10 10 10 10 10 10 10 
10 10 10 10 10 10 10 10 10 
10 10 10 10 10 10 10 10 10 
10 10 10 10 10 10 10 10 10 
10 10 10 10 10 10 10 10 10 
10 10 10 10 10 10 10 10 10 
10 10 10 10 10 10 10 10 10 
10 10 10 10 10 10 10 10 10 
10 10 10 10 10 10 10 10 10 
10 10 10 10 10 10 10 10 10 
10 10 10 10 10 10 10 10 10 
10 10 10 10 10 10 10 10 10 
10 10 10 10 10 10 10 10 10 
10 10 10 10 10 10 10 10 10 
10 10 10 10 10 10 10 10 10 
10 10 10 10 10 10 10 10 10 
10 10 10 10 10 10 10 10 10 
10 10 10 10 10 10 10 10 10 
10 10 10 10 10 10 10 10 10 
10 10 10 10 10 10 10 10 10 
10 10 10 10 10 10 10 10 10 
10 10 10 10 10 10 10 10 10 
10 10 10 10 10 10 10 10 10 
10 10 10 10 10 10 10 10 10 
10 10 10 10 10 10 10 10 10 
10 10 10 10 10 10 10 10 10 
10 10 10 10 10 10 10 
